+ 0.5 0 1 tcp 40 ------- 1 0.0 1.0 0 0
- 0.5 0 1 tcp 40 ------- 1 0.0 1.0 0 0
r 0.60032 0 1 tcp 40 ------- 1 0.0 1.0 0 0
+ 0.60032 1 0 ack 40 ------- 1 1.0 0.0 0 1
- 0.60032 1 0 ack 40 ------- 1 1.0 0.0 0 1
r 0.70064 1 0 ack 40 ------- 1 1.0 0.0 0 1
+ 0.70064 0 1 tcp 540 ------- 1 0.0 1.0 1 2
- 0.70064 0 1 tcp 540 ------- 1 0.0 1.0 1 2
+ 0.70064 0 1 tcp 540 ------- 1 0.0 1.0 2 3
- 0.70496 0 1 tcp 540 ------- 1 0.0 1.0 2 3
r 0.80496 0 1 tcp 540 ------- 1 0.0 1.0 1 2
+ 0.80496 1 0 ack 40 ------- 1 1.0 0.0 1 4
- 0.80496 1 0 ack 40 ------- 1 1.0 0.0 1 4
r 0.80928 0 1 tcp 540 ------- 1 0.0 1.0 2 3
+ 0.80928 1 0 ack 40 ------- 1 1.0 0.0 2 5
- 0.80928 1 0 ack 40 ------- 1 1.0 0.0 2 5
r 0.90528 1 0 ack 40 ------- 1 1.0 0.0 1 4
+ 0.90528 0 1 tcp 540 ------- 1 0.0 1.0 3 6
- 0.90528 0 1 tcp 540 ------- 1 0.0 1.0 3 6
+ 0.90528 0 1 tcp 540 ------- 1 0.0 1.0 4 7
r 0.9096 1 0 ack 40 ------- 1 1.0 0.0 2 5
+ 0.9096 0 1 tcp 540 ------- 1 0.0 1.0 5 8
+ 0.9096 0 1 tcp 540 ------- 1 0.0 1.0 6 9
- 0.9096 0 1 tcp 540 ------- 1 0.0 1.0 4 7
- 0.91392 0 1 tcp 540 ------- 1 0.0 1.0 5 8
- 0.91824 0 1 tcp 540 ------- 1 0.0 1.0 6 9
r 1.0096 0 1 tcp 540 ------- 1 0.0 1.0 3 6
+ 1.0096 1 0 ack 40 ------- 1 1.0 0.0 3 10
- 1.0096 1 0 ack 40 ------- 1 1.0 0.0 3 10
r 1.01392 0 1 tcp 540 ------- 1 0.0 1.0 4 7
+ 1.01392 1 0 ack 40 ------- 1 1.0 0.0 4 11
- 1.01392 1 0 ack 40 ------- 1 1.0 0.0 4 11
r 1.01824 0 1 tcp 540 ------- 1 0.0 1.0 5 8
+ 1.01824 1 0 ack 40 ------- 1 1.0 0.0 5 12
- 1.01824 1 0 ack 40 ------- 1 1.0 0.0 5 12
r 1.02256 0 1 tcp 540 ------- 1 0.0 1.0 6 9
+ 1.02256 1 0 ack 40 ------- 1 1.0 0.0 6 13
- 1.02256 1 0 ack 40 ------- 1 1.0 0.0 6 13
r 1.10992 1 0 ack 40 ------- 1 1.0 0.0 3 10
+ 1.10992 0 1 tcp 540 ------- 1 0.0 1.0 7 14
- 1.10992 0 1 tcp 540 ------- 1 0.0 1.0 7 14
+ 1.10992 0 1 tcp 540 ------- 1 0.0 1.0 8 15
r 1.11424 1 0 ack 40 ------- 1 1.0 0.0 4 11
+ 1.11424 0 1 tcp 540 ------- 1 0.0 1.0 9 16
+ 1.11424 0 1 tcp 540 ------- 1 0.0 1.0 10 17
- 1.11424 0 1 tcp 540 ------- 1 0.0 1.0 8 15
r 1.11856 1 0 ack 40 ------- 1 1.0 0.0 5 12
+ 1.11856 0 1 tcp 540 ------- 1 0.0 1.0 11 18
+ 1.11856 0 1 tcp 540 ------- 1 0.0 1.0 12 19
- 1.11856 0 1 tcp 540 ------- 1 0.0 1.0 9 16
r 1.12288 1 0 ack 40 ------- 1 1.0 0.0 6 13
+ 1.12288 0 1 tcp 540 ------- 1 0.0 1.0 13 20
+ 1.12288 0 1 tcp 540 ------- 1 0.0 1.0 14 21
- 1.12288 0 1 tcp 540 ------- 1 0.0 1.0 10 17
- 1.1272 0 1 tcp 540 ------- 1 0.0 1.0 11 18
- 1.13152 0 1 tcp 540 ------- 1 0.0 1.0 12 19
- 1.13584 0 1 tcp 540 ------- 1 0.0 1.0 13 20
- 1.14016 0 1 tcp 540 ------- 1 0.0 1.0 14 21
r 1.21424 0 1 tcp 540 ------- 1 0.0 1.0 7 14
+ 1.21424 1 0 ack 40 ------- 1 1.0 0.0 7 22
- 1.21424 1 0 ack 40 ------- 1 1.0 0.0 7 22
r 1.21856 0 1 tcp 540 ------- 1 0.0 1.0 8 15
+ 1.21856 1 0 ack 40 ------- 1 1.0 0.0 8 23
- 1.21856 1 0 ack 40 ------- 1 1.0 0.0 8 23
r 1.22288 0 1 tcp 540 ------- 1 0.0 1.0 9 16
+ 1.22288 1 0 ack 40 ------- 1 1.0 0.0 9 24
- 1.22288 1 0 ack 40 ------- 1 1.0 0.0 9 24
r 1.2272 0 1 tcp 540 ------- 1 0.0 1.0 10 17
+ 1.2272 1 0 ack 40 ------- 1 1.0 0.0 10 25
- 1.2272 1 0 ack 40 ------- 1 1.0 0.0 10 25
r 1.23152 0 1 tcp 540 ------- 1 0.0 1.0 11 18
+ 1.23152 1 0 ack 40 ------- 1 1.0 0.0 11 26
- 1.23152 1 0 ack 40 ------- 1 1.0 0.0 11 26
r 1.23584 0 1 tcp 540 ------- 1 0.0 1.0 12 19
+ 1.23584 1 0 ack 40 ------- 1 1.0 0.0 12 27
- 1.23584 1 0 ack 40 ------- 1 1.0 0.0 12 27
r 1.24016 0 1 tcp 540 ------- 1 0.0 1.0 13 20
+ 1.24016 1 0 ack 40 ------- 1 1.0 0.0 13 28
- 1.24016 1 0 ack 40 ------- 1 1.0 0.0 13 28
r 1.24448 0 1 tcp 540 ------- 1 0.0 1.0 14 21
+ 1.24448 1 0 ack 40 ------- 1 1.0 0.0 14 29
- 1.24448 1 0 ack 40 ------- 1 1.0 0.0 14 29
r 1.31456 1 0 ack 40 ------- 1 1.0 0.0 7 22
+ 1.31456 0 1 tcp 540 ------- 1 0.0 1.0 15 30
- 1.31456 0 1 tcp 540 ------- 1 0.0 1.0 15 30
+ 1.31456 0 1 tcp 540 ------- 1 0.0 1.0 16 31
r 1.31888 1 0 ack 40 ------- 1 1.0 0.0 8 23
+ 1.31888 0 1 tcp 540 ------- 1 0.0 1.0 17 32
+ 1.31888 0 1 tcp 540 ------- 1 0.0 1.0 18 33
- 1.31888 0 1 tcp 540 ------- 1 0.0 1.0 16 31
r 1.3232 1 0 ack 40 ------- 1 1.0 0.0 9 24
+ 1.3232 0 1 tcp 540 ------- 1 0.0 1.0 19 34
+ 1.3232 0 1 tcp 540 ------- 1 0.0 1.0 20 35
- 1.3232 0 1 tcp 540 ------- 1 0.0 1.0 17 32
r 1.32752 1 0 ack 40 ------- 1 1.0 0.0 10 25
+ 1.32752 0 1 tcp 540 ------- 1 0.0 1.0 21 36
+ 1.32752 0 1 tcp 540 ------- 1 0.0 1.0 22 37
- 1.32752 0 1 tcp 540 ------- 1 0.0 1.0 18 33
r 1.33184 1 0 ack 40 ------- 1 1.0 0.0 11 26
+ 1.33184 0 1 tcp 540 ------- 1 0.0 1.0 23 38
+ 1.33184 0 1 tcp 540 ------- 1 0.0 1.0 24 39
- 1.33184 0 1 tcp 540 ------- 1 0.0 1.0 19 34
r 1.33616 1 0 ack 40 ------- 1 1.0 0.0 12 27
+ 1.33616 0 1 tcp 540 ------- 1 0.0 1.0 25 40
+ 1.33616 0 1 tcp 540 ------- 1 0.0 1.0 26 41
- 1.33616 0 1 tcp 540 ------- 1 0.0 1.0 20 35
r 1.34048 1 0 ack 40 ------- 1 1.0 0.0 13 28
+ 1.34048 0 1 tcp 540 ------- 1 0.0 1.0 27 42
+ 1.34048 0 1 tcp 540 ------- 1 0.0 1.0 28 43
- 1.34048 0 1 tcp 540 ------- 1 0.0 1.0 21 36
r 1.3448 1 0 ack 40 ------- 1 1.0 0.0 14 29
+ 1.3448 0 1 tcp 540 ------- 1 0.0 1.0 29 44
+ 1.3448 0 1 tcp 540 ------- 1 0.0 1.0 30 45
- 1.3448 0 1 tcp 540 ------- 1 0.0 1.0 22 37
- 1.34912 0 1 tcp 540 ------- 1 0.0 1.0 23 38
- 1.35344 0 1 tcp 540 ------- 1 0.0 1.0 24 39
- 1.35776 0 1 tcp 540 ------- 1 0.0 1.0 25 40
- 1.36208 0 1 tcp 540 ------- 1 0.0 1.0 26 41
- 1.3664 0 1 tcp 540 ------- 1 0.0 1.0 27 42
- 1.37072 0 1 tcp 540 ------- 1 0.0 1.0 28 43
- 1.37504 0 1 tcp 540 ------- 1 0.0 1.0 29 44
- 1.37936 0 1 tcp 540 ------- 1 0.0 1.0 30 45
r 1.41888 0 1 tcp 540 ------- 1 0.0 1.0 15 30
+ 1.41888 1 0 ack 40 ------- 1 1.0 0.0 15 46
- 1.41888 1 0 ack 40 ------- 1 1.0 0.0 15 46
r 1.4232 0 1 tcp 540 ------- 1 0.0 1.0 16 31
+ 1.4232 1 0 ack 40 ------- 1 1.0 0.0 16 47
- 1.4232 1 0 ack 40 ------- 1 1.0 0.0 16 47
r 1.42752 0 1 tcp 540 ------- 1 0.0 1.0 17 32
+ 1.42752 1 0 ack 40 ------- 1 1.0 0.0 17 48
- 1.42752 1 0 ack 40 ------- 1 1.0 0.0 17 48
r 1.43184 0 1 tcp 540 ------- 1 0.0 1.0 18 33
+ 1.43184 1 0 ack 40 ------- 1 1.0 0.0 18 49
- 1.43184 1 0 ack 40 ------- 1 1.0 0.0 18 49
r 1.43616 0 1 tcp 540 ------- 1 0.0 1.0 19 34
+ 1.43616 1 0 ack 40 ------- 1 1.0 0.0 19 50
- 1.43616 1 0 ack 40 ------- 1 1.0 0.0 19 50
r 1.44048 0 1 tcp 540 ------- 1 0.0 1.0 20 35
+ 1.44048 1 0 ack 40 ------- 1 1.0 0.0 20 51
- 1.44048 1 0 ack 40 ------- 1 1.0 0.0 20 51
r 1.4448 0 1 tcp 540 ------- 1 0.0 1.0 21 36
+ 1.4448 1 0 ack 40 ------- 1 1.0 0.0 21 52
- 1.4448 1 0 ack 40 ------- 1 1.0 0.0 21 52
r 1.44912 0 1 tcp 540 ------- 1 0.0 1.0 22 37
+ 1.44912 1 0 ack 40 ------- 1 1.0 0.0 22 53
- 1.44912 1 0 ack 40 ------- 1 1.0 0.0 22 53
r 1.45344 0 1 tcp 540 ------- 1 0.0 1.0 23 38
+ 1.45344 1 0 ack 40 ------- 1 1.0 0.0 23 54
- 1.45344 1 0 ack 40 ------- 1 1.0 0.0 23 54
r 1.45776 0 1 tcp 540 ------- 1 0.0 1.0 24 39
+ 1.45776 1 0 ack 40 ------- 1 1.0 0.0 24 55
- 1.45776 1 0 ack 40 ------- 1 1.0 0.0 24 55
r 1.46208 0 1 tcp 540 ------- 1 0.0 1.0 25 40
+ 1.46208 1 0 ack 40 ------- 1 1.0 0.0 25 56
- 1.46208 1 0 ack 40 ------- 1 1.0 0.0 25 56
r 1.4664 0 1 tcp 540 ------- 1 0.0 1.0 26 41
+ 1.4664 1 0 ack 40 ------- 1 1.0 0.0 26 57
- 1.4664 1 0 ack 40 ------- 1 1.0 0.0 26 57
r 1.47072 0 1 tcp 540 ------- 1 0.0 1.0 27 42
+ 1.47072 1 0 ack 40 ------- 1 1.0 0.0 27 58
- 1.47072 1 0 ack 40 ------- 1 1.0 0.0 27 58
r 1.47504 0 1 tcp 540 ------- 1 0.0 1.0 28 43
+ 1.47504 1 0 ack 40 ------- 1 1.0 0.0 28 59
- 1.47504 1 0 ack 40 ------- 1 1.0 0.0 28 59
r 1.47936 0 1 tcp 540 ------- 1 0.0 1.0 29 44
+ 1.47936 1 0 ack 40 ------- 1 1.0 0.0 29 60
- 1.47936 1 0 ack 40 ------- 1 1.0 0.0 29 60
r 1.48368 0 1 tcp 540 ------- 1 0.0 1.0 30 45
+ 1.48368 1 0 ack 40 ------- 1 1.0 0.0 30 61
- 1.48368 1 0 ack 40 ------- 1 1.0 0.0 30 61
r 1.5192 1 0 ack 40 ------- 1 1.0 0.0 15 46
+ 1.5192 0 1 tcp 540 ------- 1 0.0 1.0 31 62
- 1.5192 0 1 tcp 540 ------- 1 0.0 1.0 31 62
+ 1.5192 0 1 tcp 540 ------- 1 0.0 1.0 32 63
r 1.52352 1 0 ack 40 ------- 1 1.0 0.0 16 47
+ 1.52352 0 1 tcp 540 ------- 1 0.0 1.0 33 64
+ 1.52352 0 1 tcp 540 ------- 1 0.0 1.0 34 65
- 1.52352 0 1 tcp 540 ------- 1 0.0 1.0 32 63
r 1.52784 1 0 ack 40 ------- 1 1.0 0.0 17 48
+ 1.52784 0 1 tcp 540 ------- 1 0.0 1.0 35 66
+ 1.52784 0 1 tcp 540 ------- 1 0.0 1.0 36 67
- 1.52784 0 1 tcp 540 ------- 1 0.0 1.0 33 64
r 1.53216 1 0 ack 40 ------- 1 1.0 0.0 18 49
+ 1.53216 0 1 tcp 540 ------- 1 0.0 1.0 37 68
+ 1.53216 0 1 tcp 540 ------- 1 0.0 1.0 38 69
- 1.53216 0 1 tcp 540 ------- 1 0.0 1.0 34 65
r 1.53648 1 0 ack 40 ------- 1 1.0 0.0 19 50
+ 1.53648 0 1 tcp 540 ------- 1 0.0 1.0 39 70
+ 1.53648 0 1 tcp 540 ------- 1 0.0 1.0 40 71
- 1.53648 0 1 tcp 540 ------- 1 0.0 1.0 35 66
r 1.5408 1 0 ack 40 ------- 1 1.0 0.0 20 51
+ 1.5408 0 1 tcp 540 ------- 1 0.0 1.0 41 72
+ 1.5408 0 1 tcp 540 ------- 1 0.0 1.0 42 73
- 1.5408 0 1 tcp 540 ------- 1 0.0 1.0 36 67
r 1.54512 1 0 ack 40 ------- 1 1.0 0.0 21 52
+ 1.54512 0 1 tcp 540 ------- 1 0.0 1.0 43 74
+ 1.54512 0 1 tcp 540 ------- 1 0.0 1.0 44 75
- 1.54512 0 1 tcp 540 ------- 1 0.0 1.0 37 68
r 1.54944 1 0 ack 40 ------- 1 1.0 0.0 22 53
+ 1.54944 0 1 tcp 540 ------- 1 0.0 1.0 45 76
+ 1.54944 0 1 tcp 540 ------- 1 0.0 1.0 46 77
- 1.54944 0 1 tcp 540 ------- 1 0.0 1.0 38 69
r 1.55376 1 0 ack 40 ------- 1 1.0 0.0 23 54
+ 1.55376 0 1 tcp 540 ------- 1 0.0 1.0 47 78
+ 1.55376 0 1 tcp 540 ------- 1 0.0 1.0 48 79
- 1.55376 0 1 tcp 540 ------- 1 0.0 1.0 39 70
r 1.55808 1 0 ack 40 ------- 1 1.0 0.0 24 55
+ 1.55808 0 1 tcp 540 ------- 1 0.0 1.0 49 80
+ 1.55808 0 1 tcp 540 ------- 1 0.0 1.0 50 81
- 1.55808 0 1 tcp 540 ------- 1 0.0 1.0 40 71
r 1.5624 1 0 ack 40 ------- 1 1.0 0.0 25 56
+ 1.5624 0 1 tcp 540 ------- 1 0.0 1.0 51 82
+ 1.5624 0 1 tcp 540 ------- 1 0.0 1.0 52 83
- 1.5624 0 1 tcp 540 ------- 1 0.0 1.0 41 72
r 1.56672 1 0 ack 40 ------- 1 1.0 0.0 26 57
+ 1.56672 0 1 tcp 540 ------- 1 0.0 1.0 53 84
+ 1.56672 0 1 tcp 540 ------- 1 0.0 1.0 54 85
- 1.56672 0 1 tcp 540 ------- 1 0.0 1.0 42 73
r 1.57104 1 0 ack 40 ------- 1 1.0 0.0 27 58
+ 1.57104 0 1 tcp 540 ------- 1 0.0 1.0 55 86
+ 1.57104 0 1 tcp 540 ------- 1 0.0 1.0 56 87
- 1.57104 0 1 tcp 540 ------- 1 0.0 1.0 43 74
r 1.57536 1 0 ack 40 ------- 1 1.0 0.0 28 59
+ 1.57536 0 1 tcp 540 ------- 1 0.0 1.0 57 88
+ 1.57536 0 1 tcp 540 ------- 1 0.0 1.0 58 89
- 1.57536 0 1 tcp 540 ------- 1 0.0 1.0 44 75
r 1.57968 1 0 ack 40 ------- 1 1.0 0.0 29 60
+ 1.57968 0 1 tcp 540 ------- 1 0.0 1.0 59 90
+ 1.57968 0 1 tcp 540 ------- 1 0.0 1.0 60 91
- 1.57968 0 1 tcp 540 ------- 1 0.0 1.0 45 76
r 1.584 1 0 ack 40 ------- 1 1.0 0.0 30 61
+ 1.584 0 1 tcp 540 ------- 1 0.0 1.0 61 92
+ 1.584 0 1 tcp 540 ------- 1 0.0 1.0 62 93
- 1.584 0 1 tcp 540 ------- 1 0.0 1.0 46 77
- 1.58832 0 1 tcp 540 ------- 1 0.0 1.0 47 78
- 1.59264 0 1 tcp 540 ------- 1 0.0 1.0 48 79
- 1.59696 0 1 tcp 540 ------- 1 0.0 1.0 49 80
- 1.60128 0 1 tcp 540 ------- 1 0.0 1.0 50 81
- 1.6056 0 1 tcp 540 ------- 1 0.0 1.0 51 82
- 1.60992 0 1 tcp 540 ------- 1 0.0 1.0 52 83
- 1.61424 0 1 tcp 540 ------- 1 0.0 1.0 53 84
- 1.61856 0 1 tcp 540 ------- 1 0.0 1.0 54 85
- 1.62288 0 1 tcp 540 ------- 1 0.0 1.0 55 86
r 1.62352 0 1 tcp 540 ------- 1 0.0 1.0 31 62
+ 1.62352 1 0 ack 40 ------- 1 1.0 0.0 31 94
- 1.62352 1 0 ack 40 ------- 1 1.0 0.0 31 94
- 1.6272 0 1 tcp 540 ------- 1 0.0 1.0 56 87
r 1.62784 0 1 tcp 540 ------- 1 0.0 1.0 32 63
+ 1.62784 1 0 ack 40 ------- 1 1.0 0.0 32 95
- 1.62784 1 0 ack 40 ------- 1 1.0 0.0 32 95
- 1.63152 0 1 tcp 540 ------- 1 0.0 1.0 57 88
r 1.63216 0 1 tcp 540 ------- 1 0.0 1.0 33 64
+ 1.63216 1 0 ack 40 ------- 1 1.0 0.0 33 96
- 1.63216 1 0 ack 40 ------- 1 1.0 0.0 33 96
- 1.63584 0 1 tcp 540 ------- 1 0.0 1.0 58 89
r 1.63648 0 1 tcp 540 ------- 1 0.0 1.0 34 65
+ 1.63648 1 0 ack 40 ------- 1 1.0 0.0 34 97
- 1.63648 1 0 ack 40 ------- 1 1.0 0.0 34 97
- 1.64016 0 1 tcp 540 ------- 1 0.0 1.0 59 90
r 1.6408 0 1 tcp 540 ------- 1 0.0 1.0 35 66
+ 1.6408 1 0 ack 40 ------- 1 1.0 0.0 35 98
- 1.6408 1 0 ack 40 ------- 1 1.0 0.0 35 98
- 1.64448 0 1 tcp 540 ------- 1 0.0 1.0 60 91
r 1.64512 0 1 tcp 540 ------- 1 0.0 1.0 36 67
+ 1.64512 1 0 ack 40 ------- 1 1.0 0.0 36 99
- 1.64512 1 0 ack 40 ------- 1 1.0 0.0 36 99
- 1.6488 0 1 tcp 540 ------- 1 0.0 1.0 61 92
r 1.64944 0 1 tcp 540 ------- 1 0.0 1.0 37 68
+ 1.64944 1 0 ack 40 ------- 1 1.0 0.0 37 100
- 1.64944 1 0 ack 40 ------- 1 1.0 0.0 37 100
- 1.65312 0 1 tcp 540 ------- 1 0.0 1.0 62 93
r 1.65376 0 1 tcp 540 ------- 1 0.0 1.0 38 69
+ 1.65376 1 0 ack 40 ------- 1 1.0 0.0 38 101
- 1.65376 1 0 ack 40 ------- 1 1.0 0.0 38 101
r 1.65808 0 1 tcp 540 ------- 1 0.0 1.0 39 70
+ 1.65808 1 0 ack 40 ------- 1 1.0 0.0 39 102
- 1.65808 1 0 ack 40 ------- 1 1.0 0.0 39 102
r 1.6624 0 1 tcp 540 ------- 1 0.0 1.0 40 71
+ 1.6624 1 0 ack 40 ------- 1 1.0 0.0 40 103
- 1.6624 1 0 ack 40 ------- 1 1.0 0.0 40 103
r 1.66672 0 1 tcp 540 ------- 1 0.0 1.0 41 72
+ 1.66672 1 0 ack 40 ------- 1 1.0 0.0 41 104
- 1.66672 1 0 ack 40 ------- 1 1.0 0.0 41 104
r 1.67104 0 1 tcp 540 ------- 1 0.0 1.0 42 73
+ 1.67104 1 0 ack 40 ------- 1 1.0 0.0 42 105
- 1.67104 1 0 ack 40 ------- 1 1.0 0.0 42 105
r 1.67536 0 1 tcp 540 ------- 1 0.0 1.0 43 74
+ 1.67536 1 0 ack 40 ------- 1 1.0 0.0 43 106
- 1.67536 1 0 ack 40 ------- 1 1.0 0.0 43 106
r 1.67968 0 1 tcp 540 ------- 1 0.0 1.0 44 75
+ 1.67968 1 0 ack 40 ------- 1 1.0 0.0 44 107
- 1.67968 1 0 ack 40 ------- 1 1.0 0.0 44 107
r 1.684 0 1 tcp 540 ------- 1 0.0 1.0 45 76
+ 1.684 1 0 ack 40 ------- 1 1.0 0.0 45 108
- 1.684 1 0 ack 40 ------- 1 1.0 0.0 45 108
r 1.68832 0 1 tcp 540 ------- 1 0.0 1.0 46 77
+ 1.68832 1 0 ack 40 ------- 1 1.0 0.0 46 109
- 1.68832 1 0 ack 40 ------- 1 1.0 0.0 46 109
r 1.69264 0 1 tcp 540 ------- 1 0.0 1.0 47 78
+ 1.69264 1 0 ack 40 ------- 1 1.0 0.0 47 110
- 1.69264 1 0 ack 40 ------- 1 1.0 0.0 47 110
r 1.69696 0 1 tcp 540 ------- 1 0.0 1.0 48 79
+ 1.69696 1 0 ack 40 ------- 1 1.0 0.0 48 111
- 1.69696 1 0 ack 40 ------- 1 1.0 0.0 48 111
r 1.70128 0 1 tcp 540 ------- 1 0.0 1.0 49 80
+ 1.70128 1 0 ack 40 ------- 1 1.0 0.0 49 112
- 1.70128 1 0 ack 40 ------- 1 1.0 0.0 49 112
r 1.7056 0 1 tcp 540 ------- 1 0.0 1.0 50 81
+ 1.7056 1 0 ack 40 ------- 1 1.0 0.0 50 113
- 1.7056 1 0 ack 40 ------- 1 1.0 0.0 50 113
r 1.70992 0 1 tcp 540 ------- 1 0.0 1.0 51 82
+ 1.70992 1 0 ack 40 ------- 1 1.0 0.0 51 114
- 1.70992 1 0 ack 40 ------- 1 1.0 0.0 51 114
r 1.71424 0 1 tcp 540 ------- 1 0.0 1.0 52 83
+ 1.71424 1 0 ack 40 ------- 1 1.0 0.0 52 115
- 1.71424 1 0 ack 40 ------- 1 1.0 0.0 52 115
r 1.71856 0 1 tcp 540 ------- 1 0.0 1.0 53 84
+ 1.71856 1 0 ack 40 ------- 1 1.0 0.0 53 116
- 1.71856 1 0 ack 40 ------- 1 1.0 0.0 53 116
r 1.72288 0 1 tcp 540 ------- 1 0.0 1.0 54 85
+ 1.72288 1 0 ack 40 ------- 1 1.0 0.0 54 117
- 1.72288 1 0 ack 40 ------- 1 1.0 0.0 54 117
r 1.72384 1 0 ack 40 ------- 1 1.0 0.0 31 94
+ 1.72384 0 1 tcp 540 ------- 1 0.0 1.0 63 118
- 1.72384 0 1 tcp 540 ------- 1 0.0 1.0 63 118
+ 1.72384 0 1 tcp 540 ------- 1 0.0 1.0 64 119
r 1.7272 0 1 tcp 540 ------- 1 0.0 1.0 55 86
+ 1.7272 1 0 ack 40 ------- 1 1.0 0.0 55 120
- 1.7272 1 0 ack 40 ------- 1 1.0 0.0 55 120
r 1.72816 1 0 ack 40 ------- 1 1.0 0.0 32 95
+ 1.72816 0 1 tcp 540 ------- 1 0.0 1.0 65 121
+ 1.72816 0 1 tcp 540 ------- 1 0.0 1.0 66 122
- 1.72816 0 1 tcp 540 ------- 1 0.0 1.0 64 119
r 1.73152 0 1 tcp 540 ------- 1 0.0 1.0 56 87
+ 1.73152 1 0 ack 40 ------- 1 1.0 0.0 56 123
- 1.73152 1 0 ack 40 ------- 1 1.0 0.0 56 123
r 1.73248 1 0 ack 40 ------- 1 1.0 0.0 33 96
+ 1.73248 0 1 tcp 540 ------- 1 0.0 1.0 67 124
+ 1.73248 0 1 tcp 540 ------- 1 0.0 1.0 68 125
- 1.73248 0 1 tcp 540 ------- 1 0.0 1.0 65 121
r 1.73584 0 1 tcp 540 ------- 1 0.0 1.0 57 88
+ 1.73584 1 0 ack 40 ------- 1 1.0 0.0 57 126
- 1.73584 1 0 ack 40 ------- 1 1.0 0.0 57 126
r 1.7368 1 0 ack 40 ------- 1 1.0 0.0 34 97
+ 1.7368 0 1 tcp 540 ------- 1 0.0 1.0 69 127
+ 1.7368 0 1 tcp 540 ------- 1 0.0 1.0 70 128
- 1.7368 0 1 tcp 540 ------- 1 0.0 1.0 66 122
r 1.74016 0 1 tcp 540 ------- 1 0.0 1.0 58 89
+ 1.74016 1 0 ack 40 ------- 1 1.0 0.0 58 129
- 1.74016 1 0 ack 40 ------- 1 1.0 0.0 58 129
r 1.74112 1 0 ack 40 ------- 1 1.0 0.0 35 98
+ 1.74112 0 1 tcp 540 ------- 1 0.0 1.0 71 130
+ 1.74112 0 1 tcp 540 ------- 1 0.0 1.0 72 131
- 1.74112 0 1 tcp 540 ------- 1 0.0 1.0 67 124
r 1.74448 0 1 tcp 540 ------- 1 0.0 1.0 59 90
+ 1.74448 1 0 ack 40 ------- 1 1.0 0.0 59 132
- 1.74448 1 0 ack 40 ------- 1 1.0 0.0 59 132
r 1.74544 1 0 ack 40 ------- 1 1.0 0.0 36 99
+ 1.74544 0 1 tcp 540 ------- 1 0.0 1.0 73 133
+ 1.74544 0 1 tcp 540 ------- 1 0.0 1.0 74 134
- 1.74544 0 1 tcp 540 ------- 1 0.0 1.0 68 125
r 1.7488 0 1 tcp 540 ------- 1 0.0 1.0 60 91
+ 1.7488 1 0 ack 40 ------- 1 1.0 0.0 60 135
- 1.7488 1 0 ack 40 ------- 1 1.0 0.0 60 135
r 1.74976 1 0 ack 40 ------- 1 1.0 0.0 37 100
+ 1.74976 0 1 tcp 540 ------- 1 0.0 1.0 75 136
+ 1.74976 0 1 tcp 540 ------- 1 0.0 1.0 76 137
- 1.74976 0 1 tcp 540 ------- 1 0.0 1.0 69 127
r 1.75312 0 1 tcp 540 ------- 1 0.0 1.0 61 92
+ 1.75312 1 0 ack 40 ------- 1 1.0 0.0 61 138
- 1.75312 1 0 ack 40 ------- 1 1.0 0.0 61 138
r 1.75408 1 0 ack 40 ------- 1 1.0 0.0 38 101
+ 1.75408 0 1 tcp 540 ------- 1 0.0 1.0 77 139
+ 1.75408 0 1 tcp 540 ------- 1 0.0 1.0 78 140
- 1.75408 0 1 tcp 540 ------- 1 0.0 1.0 70 128
r 1.75744 0 1 tcp 540 ------- 1 0.0 1.0 62 93
+ 1.75744 1 0 ack 40 ------- 1 1.0 0.0 62 141
- 1.75744 1 0 ack 40 ------- 1 1.0 0.0 62 141
r 1.7584 1 0 ack 40 ------- 1 1.0 0.0 39 102
+ 1.7584 0 1 tcp 540 ------- 1 0.0 1.0 79 142
+ 1.7584 0 1 tcp 540 ------- 1 0.0 1.0 80 143
- 1.7584 0 1 tcp 540 ------- 1 0.0 1.0 71 130
r 1.76272 1 0 ack 40 ------- 1 1.0 0.0 40 103
+ 1.76272 0 1 tcp 540 ------- 1 0.0 1.0 81 144
+ 1.76272 0 1 tcp 540 ------- 1 0.0 1.0 82 145
- 1.76272 0 1 tcp 540 ------- 1 0.0 1.0 72 131
r 1.76704 1 0 ack 40 ------- 1 1.0 0.0 41 104
+ 1.76704 0 1 tcp 540 ------- 1 0.0 1.0 83 146
+ 1.76704 0 1 tcp 540 ------- 1 0.0 1.0 84 147
- 1.76704 0 1 tcp 540 ------- 1 0.0 1.0 73 133
r 1.77136 1 0 ack 40 ------- 1 1.0 0.0 42 105
+ 1.77136 0 1 tcp 540 ------- 1 0.0 1.0 85 148
+ 1.77136 0 1 tcp 540 ------- 1 0.0 1.0 86 149
- 1.77136 0 1 tcp 540 ------- 1 0.0 1.0 74 134
r 1.77568 1 0 ack 40 ------- 1 1.0 0.0 43 106
+ 1.77568 0 1 tcp 540 ------- 1 0.0 1.0 87 150
+ 1.77568 0 1 tcp 540 ------- 1 0.0 1.0 88 151
- 1.77568 0 1 tcp 540 ------- 1 0.0 1.0 75 136
r 1.78 1 0 ack 40 ------- 1 1.0 0.0 44 107
+ 1.78 0 1 tcp 540 ------- 1 0.0 1.0 89 152
+ 1.78 0 1 tcp 540 ------- 1 0.0 1.0 90 153
- 1.78 0 1 tcp 540 ------- 1 0.0 1.0 76 137
r 1.78432 1 0 ack 40 ------- 1 1.0 0.0 45 108
+ 1.78432 0 1 tcp 540 ------- 1 0.0 1.0 91 154
+ 1.78432 0 1 tcp 540 ------- 1 0.0 1.0 92 155
- 1.78432 0 1 tcp 540 ------- 1 0.0 1.0 77 139
r 1.78864 1 0 ack 40 ------- 1 1.0 0.0 46 109
+ 1.78864 0 1 tcp 540 ------- 1 0.0 1.0 93 156
+ 1.78864 0 1 tcp 540 ------- 1 0.0 1.0 94 157
- 1.78864 0 1 tcp 540 ------- 1 0.0 1.0 78 140
r 1.79296 1 0 ack 40 ------- 1 1.0 0.0 47 110
+ 1.79296 0 1 tcp 540 ------- 1 0.0 1.0 95 158
+ 1.79296 0 1 tcp 540 ------- 1 0.0 1.0 96 159
- 1.79296 0 1 tcp 540 ------- 1 0.0 1.0 79 142
r 1.79728 1 0 ack 40 ------- 1 1.0 0.0 48 111
+ 1.79728 0 1 tcp 540 ------- 1 0.0 1.0 97 160
+ 1.79728 0 1 tcp 540 ------- 1 0.0 1.0 98 161
- 1.79728 0 1 tcp 540 ------- 1 0.0 1.0 80 143
r 1.8016 1 0 ack 40 ------- 1 1.0 0.0 49 112
+ 1.8016 0 1 tcp 540 ------- 1 0.0 1.0 99 162
+ 1.8016 0 1 tcp 540 ------- 1 0.0 1.0 100 163
d 1.8016 0 1 tcp 540 ------- 1 0.0 1.0 100 163
- 1.8016 0 1 tcp 540 ------- 1 0.0 1.0 81 144
r 1.80592 1 0 ack 40 ------- 1 1.0 0.0 50 113
+ 1.80592 0 1 tcp 540 ------- 1 0.0 1.0 101 164
+ 1.80592 0 1 tcp 540 ------- 1 0.0 1.0 102 165
d 1.80592 0 1 tcp 540 ------- 1 0.0 1.0 102 165
- 1.80592 0 1 tcp 540 ------- 1 0.0 1.0 82 145
r 1.81024 1 0 ack 40 ------- 1 1.0 0.0 51 114
+ 1.81024 0 1 tcp 540 ------- 1 0.0 1.0 103 166
+ 1.81024 0 1 tcp 540 ------- 1 0.0 1.0 104 167
d 1.81024 0 1 tcp 540 ------- 1 0.0 1.0 104 167
- 1.81024 0 1 tcp 540 ------- 1 0.0 1.0 83 146
r 1.81456 1 0 ack 40 ------- 1 1.0 0.0 52 115
+ 1.81456 0 1 tcp 540 ------- 1 0.0 1.0 105 168
+ 1.81456 0 1 tcp 540 ------- 1 0.0 1.0 106 169
d 1.81456 0 1 tcp 540 ------- 1 0.0 1.0 106 169
- 1.81456 0 1 tcp 540 ------- 1 0.0 1.0 84 147
r 1.81888 1 0 ack 40 ------- 1 1.0 0.0 53 116
+ 1.81888 0 1 tcp 540 ------- 1 0.0 1.0 107 170
+ 1.81888 0 1 tcp 540 ------- 1 0.0 1.0 108 171
d 1.81888 0 1 tcp 540 ------- 1 0.0 1.0 108 171
- 1.81888 0 1 tcp 540 ------- 1 0.0 1.0 85 148
r 1.8232 1 0 ack 40 ------- 1 1.0 0.0 54 117
+ 1.8232 0 1 tcp 540 ------- 1 0.0 1.0 109 172
+ 1.8232 0 1 tcp 540 ------- 1 0.0 1.0 110 173
d 1.8232 0 1 tcp 540 ------- 1 0.0 1.0 110 173
- 1.8232 0 1 tcp 540 ------- 1 0.0 1.0 86 149
r 1.82752 1 0 ack 40 ------- 1 1.0 0.0 55 120
+ 1.82752 0 1 tcp 540 ------- 1 0.0 1.0 111 174
+ 1.82752 0 1 tcp 540 ------- 1 0.0 1.0 112 175
d 1.82752 0 1 tcp 540 ------- 1 0.0 1.0 112 175
- 1.82752 0 1 tcp 540 ------- 1 0.0 1.0 87 150
r 1.82816 0 1 tcp 540 ------- 1 0.0 1.0 63 118
+ 1.82816 1 0 ack 40 ------- 1 1.0 0.0 63 176
- 1.82816 1 0 ack 40 ------- 1 1.0 0.0 63 176
r 1.83184 1 0 ack 40 ------- 1 1.0 0.0 56 123
+ 1.83184 0 1 tcp 540 ------- 1 0.0 1.0 113 177
+ 1.83184 0 1 tcp 540 ------- 1 0.0 1.0 114 178
d 1.83184 0 1 tcp 540 ------- 1 0.0 1.0 114 178
- 1.83184 0 1 tcp 540 ------- 1 0.0 1.0 88 151
r 1.83248 0 1 tcp 540 ------- 1 0.0 1.0 64 119
+ 1.83248 1 0 ack 40 ------- 1 1.0 0.0 64 179
- 1.83248 1 0 ack 40 ------- 1 1.0 0.0 64 179
r 1.83616 1 0 ack 40 ------- 1 1.0 0.0 57 126
+ 1.83616 0 1 tcp 540 ------- 1 0.0 1.0 115 180
+ 1.83616 0 1 tcp 540 ------- 1 0.0 1.0 116 181
d 1.83616 0 1 tcp 540 ------- 1 0.0 1.0 116 181
- 1.83616 0 1 tcp 540 ------- 1 0.0 1.0 89 152
r 1.8368 0 1 tcp 540 ------- 1 0.0 1.0 65 121
+ 1.8368 1 0 ack 40 ------- 1 1.0 0.0 65 182
- 1.8368 1 0 ack 40 ------- 1 1.0 0.0 65 182
r 1.84048 1 0 ack 40 ------- 1 1.0 0.0 58 129
+ 1.84048 0 1 tcp 540 ------- 1 0.0 1.0 117 183
+ 1.84048 0 1 tcp 540 ------- 1 0.0 1.0 118 184
d 1.84048 0 1 tcp 540 ------- 1 0.0 1.0 118 184
- 1.84048 0 1 tcp 540 ------- 1 0.0 1.0 90 153
r 1.84112 0 1 tcp 540 ------- 1 0.0 1.0 66 122
+ 1.84112 1 0 ack 40 ------- 1 1.0 0.0 66 185
- 1.84112 1 0 ack 40 ------- 1 1.0 0.0 66 185
r 1.8448 1 0 ack 40 ------- 1 1.0 0.0 59 132
+ 1.8448 0 1 tcp 540 ------- 1 0.0 1.0 119 186
+ 1.8448 0 1 tcp 540 ------- 1 0.0 1.0 120 187
d 1.8448 0 1 tcp 540 ------- 1 0.0 1.0 120 187
- 1.8448 0 1 tcp 540 ------- 1 0.0 1.0 91 154
r 1.84544 0 1 tcp 540 ------- 1 0.0 1.0 67 124
+ 1.84544 1 0 ack 40 ------- 1 1.0 0.0 67 188
- 1.84544 1 0 ack 40 ------- 1 1.0 0.0 67 188
r 1.84912 1 0 ack 40 ------- 1 1.0 0.0 60 135
+ 1.84912 0 1 tcp 540 ------- 1 0.0 1.0 121 189
+ 1.84912 0 1 tcp 540 ------- 1 0.0 1.0 122 190
d 1.84912 0 1 tcp 540 ------- 1 0.0 1.0 122 190
- 1.84912 0 1 tcp 540 ------- 1 0.0 1.0 92 155
r 1.84976 0 1 tcp 540 ------- 1 0.0 1.0 68 125
+ 1.84976 1 0 ack 40 ------- 1 1.0 0.0 68 191
- 1.84976 1 0 ack 40 ------- 1 1.0 0.0 68 191
r 1.85344 1 0 ack 40 ------- 1 1.0 0.0 61 138
+ 1.85344 0 1 tcp 540 ------- 1 0.0 1.0 123 192
+ 1.85344 0 1 tcp 540 ------- 1 0.0 1.0 124 193
d 1.85344 0 1 tcp 540 ------- 1 0.0 1.0 124 193
- 1.85344 0 1 tcp 540 ------- 1 0.0 1.0 93 156
r 1.85408 0 1 tcp 540 ------- 1 0.0 1.0 69 127
+ 1.85408 1 0 ack 40 ------- 1 1.0 0.0 69 194
- 1.85408 1 0 ack 40 ------- 1 1.0 0.0 69 194
r 1.85776 1 0 ack 40 ------- 1 1.0 0.0 62 141
+ 1.85776 0 1 tcp 540 ------- 1 0.0 1.0 125 195
+ 1.85776 0 1 tcp 540 ------- 1 0.0 1.0 126 196
d 1.85776 0 1 tcp 540 ------- 1 0.0 1.0 126 196
- 1.85776 0 1 tcp 540 ------- 1 0.0 1.0 94 157
r 1.8584 0 1 tcp 540 ------- 1 0.0 1.0 70 128
+ 1.8584 1 0 ack 40 ------- 1 1.0 0.0 70 197
- 1.8584 1 0 ack 40 ------- 1 1.0 0.0 70 197
- 1.86208 0 1 tcp 540 ------- 1 0.0 1.0 95 158
r 1.86272 0 1 tcp 540 ------- 1 0.0 1.0 71 130
+ 1.86272 1 0 ack 40 ------- 1 1.0 0.0 71 198
- 1.86272 1 0 ack 40 ------- 1 1.0 0.0 71 198
- 1.8664 0 1 tcp 540 ------- 1 0.0 1.0 96 159
r 1.86704 0 1 tcp 540 ------- 1 0.0 1.0 72 131
+ 1.86704 1 0 ack 40 ------- 1 1.0 0.0 72 199
- 1.86704 1 0 ack 40 ------- 1 1.0 0.0 72 199
- 1.87072 0 1 tcp 540 ------- 1 0.0 1.0 97 160
r 1.87136 0 1 tcp 540 ------- 1 0.0 1.0 73 133
+ 1.87136 1 0 ack 40 ------- 1 1.0 0.0 73 200
- 1.87136 1 0 ack 40 ------- 1 1.0 0.0 73 200
- 1.87504 0 1 tcp 540 ------- 1 0.0 1.0 98 161
r 1.87568 0 1 tcp 540 ------- 1 0.0 1.0 74 134
+ 1.87568 1 0 ack 40 ------- 1 1.0 0.0 74 201
- 1.87568 1 0 ack 40 ------- 1 1.0 0.0 74 201
- 1.87936 0 1 tcp 540 ------- 1 0.0 1.0 99 162
r 1.88 0 1 tcp 540 ------- 1 0.0 1.0 75 136
+ 1.88 1 0 ack 40 ------- 1 1.0 0.0 75 202
- 1.88 1 0 ack 40 ------- 1 1.0 0.0 75 202
- 1.88368 0 1 tcp 540 ------- 1 0.0 1.0 101 164
r 1.88432 0 1 tcp 540 ------- 1 0.0 1.0 76 137
+ 1.88432 1 0 ack 40 ------- 1 1.0 0.0 76 203
- 1.88432 1 0 ack 40 ------- 1 1.0 0.0 76 203
- 1.888 0 1 tcp 540 ------- 1 0.0 1.0 103 166
r 1.88864 0 1 tcp 540 ------- 1 0.0 1.0 77 139
+ 1.88864 1 0 ack 40 ------- 1 1.0 0.0 77 204
- 1.88864 1 0 ack 40 ------- 1 1.0 0.0 77 204
- 1.89232 0 1 tcp 540 ------- 1 0.0 1.0 105 168
r 1.89296 0 1 tcp 540 ------- 1 0.0 1.0 78 140
+ 1.89296 1 0 ack 40 ------- 1 1.0 0.0 78 205
- 1.89296 1 0 ack 40 ------- 1 1.0 0.0 78 205
- 1.89664 0 1 tcp 540 ------- 1 0.0 1.0 107 170
r 1.89728 0 1 tcp 540 ------- 1 0.0 1.0 79 142
+ 1.89728 1 0 ack 40 ------- 1 1.0 0.0 79 206
- 1.89728 1 0 ack 40 ------- 1 1.0 0.0 79 206
- 1.90096 0 1 tcp 540 ------- 1 0.0 1.0 109 172
r 1.9016 0 1 tcp 540 ------- 1 0.0 1.0 80 143
+ 1.9016 1 0 ack 40 ------- 1 1.0 0.0 80 207
- 1.9016 1 0 ack 40 ------- 1 1.0 0.0 80 207
- 1.90528 0 1 tcp 540 ------- 1 0.0 1.0 111 174
r 1.90592 0 1 tcp 540 ------- 1 0.0 1.0 81 144
+ 1.90592 1 0 ack 40 ------- 1 1.0 0.0 81 208
- 1.90592 1 0 ack 40 ------- 1 1.0 0.0 81 208
- 1.9096 0 1 tcp 540 ------- 1 0.0 1.0 113 177
r 1.91024 0 1 tcp 540 ------- 1 0.0 1.0 82 145
+ 1.91024 1 0 ack 40 ------- 1 1.0 0.0 82 209
- 1.91024 1 0 ack 40 ------- 1 1.0 0.0 82 209
- 1.91392 0 1 tcp 540 ------- 1 0.0 1.0 115 180
r 1.91456 0 1 tcp 540 ------- 1 0.0 1.0 83 146
+ 1.91456 1 0 ack 40 ------- 1 1.0 0.0 83 210
- 1.91456 1 0 ack 40 ------- 1 1.0 0.0 83 210
- 1.91824 0 1 tcp 540 ------- 1 0.0 1.0 117 183
r 1.91888 0 1 tcp 540 ------- 1 0.0 1.0 84 147
+ 1.91888 1 0 ack 40 ------- 1 1.0 0.0 84 211
- 1.91888 1 0 ack 40 ------- 1 1.0 0.0 84 211
- 1.92256 0 1 tcp 540 ------- 1 0.0 1.0 119 186
r 1.9232 0 1 tcp 540 ------- 1 0.0 1.0 85 148
+ 1.9232 1 0 ack 40 ------- 1 1.0 0.0 85 212
- 1.9232 1 0 ack 40 ------- 1 1.0 0.0 85 212
- 1.92688 0 1 tcp 540 ------- 1 0.0 1.0 121 189
r 1.92752 0 1 tcp 540 ------- 1 0.0 1.0 86 149
+ 1.92752 1 0 ack 40 ------- 1 1.0 0.0 86 213
- 1.92752 1 0 ack 40 ------- 1 1.0 0.0 86 213
r 1.92848 1 0 ack 40 ------- 1 1.0 0.0 63 176
+ 1.92848 0 1 tcp 540 ------- 1 0.0 1.0 127 214
+ 1.92848 0 1 tcp 540 ------- 1 0.0 1.0 128 215
- 1.9312 0 1 tcp 540 ------- 1 0.0 1.0 123 192
r 1.93184 0 1 tcp 540 ------- 1 0.0 1.0 87 150
+ 1.93184 1 0 ack 40 ------- 1 1.0 0.0 87 216
- 1.93184 1 0 ack 40 ------- 1 1.0 0.0 87 216
r 1.9328 1 0 ack 40 ------- 1 1.0 0.0 64 179
+ 1.9328 0 1 tcp 540 ------- 1 0.0 1.0 129 217
+ 1.9328 0 1 tcp 540 ------- 1 0.0 1.0 130 218
- 1.93552 0 1 tcp 540 ------- 1 0.0 1.0 125 195
r 1.93616 0 1 tcp 540 ------- 1 0.0 1.0 88 151
+ 1.93616 1 0 ack 40 ------- 1 1.0 0.0 88 219
- 1.93616 1 0 ack 40 ------- 1 1.0 0.0 88 219
r 1.93712 1 0 ack 40 ------- 1 1.0 0.0 65 182
+ 1.93712 0 1 tcp 540 ------- 1 0.0 1.0 131 220
+ 1.93712 0 1 tcp 540 ------- 1 0.0 1.0 132 221
- 1.93984 0 1 tcp 540 ------- 1 0.0 1.0 127 214
r 1.94048 0 1 tcp 540 ------- 1 0.0 1.0 89 152
+ 1.94048 1 0 ack 40 ------- 1 1.0 0.0 89 222
- 1.94048 1 0 ack 40 ------- 1 1.0 0.0 89 222
r 1.94144 1 0 ack 40 ------- 1 1.0 0.0 66 185
+ 1.94144 0 1 tcp 540 ------- 1 0.0 1.0 133 223
- 1.94416 0 1 tcp 540 ------- 1 0.0 1.0 128 215
r 1.9448 0 1 tcp 540 ------- 1 0.0 1.0 90 153
+ 1.9448 1 0 ack 40 ------- 1 1.0 0.0 90 224
- 1.9448 1 0 ack 40 ------- 1 1.0 0.0 90 224
r 1.94576 1 0 ack 40 ------- 1 1.0 0.0 67 188
+ 1.94576 0 1 tcp 540 ------- 1 0.0 1.0 134 225
- 1.94848 0 1 tcp 540 ------- 1 0.0 1.0 129 217
r 1.94912 0 1 tcp 540 ------- 1 0.0 1.0 91 154
+ 1.94912 1 0 ack 40 ------- 1 1.0 0.0 91 226
- 1.94912 1 0 ack 40 ------- 1 1.0 0.0 91 226
r 1.95008 1 0 ack 40 ------- 1 1.0 0.0 68 191
+ 1.95008 0 1 tcp 540 ------- 1 0.0 1.0 135 227
- 1.9528 0 1 tcp 540 ------- 1 0.0 1.0 130 218
r 1.95344 0 1 tcp 540 ------- 1 0.0 1.0 92 155
+ 1.95344 1 0 ack 40 ------- 1 1.0 0.0 92 228
- 1.95344 1 0 ack 40 ------- 1 1.0 0.0 92 228
r 1.9544 1 0 ack 40 ------- 1 1.0 0.0 69 194
+ 1.9544 0 1 tcp 540 ------- 1 0.0 1.0 136 229
- 1.95712 0 1 tcp 540 ------- 1 0.0 1.0 131 220
r 1.95776 0 1 tcp 540 ------- 1 0.0 1.0 93 156
+ 1.95776 1 0 ack 40 ------- 1 1.0 0.0 93 230
- 1.95776 1 0 ack 40 ------- 1 1.0 0.0 93 230
r 1.95872 1 0 ack 40 ------- 1 1.0 0.0 70 197
+ 1.95872 0 1 tcp 540 ------- 1 0.0 1.0 137 231
- 1.96144 0 1 tcp 540 ------- 1 0.0 1.0 132 221
r 1.96208 0 1 tcp 540 ------- 1 0.0 1.0 94 157
+ 1.96208 1 0 ack 40 ------- 1 1.0 0.0 94 232
- 1.96208 1 0 ack 40 ------- 1 1.0 0.0 94 232
r 1.96304 1 0 ack 40 ------- 1 1.0 0.0 71 198
+ 1.96304 0 1 tcp 540 ------- 1 0.0 1.0 138 233
- 1.96576 0 1 tcp 540 ------- 1 0.0 1.0 133 223
r 1.9664 0 1 tcp 540 ------- 1 0.0 1.0 95 158
+ 1.9664 1 0 ack 40 ------- 1 1.0 0.0 95 234
- 1.9664 1 0 ack 40 ------- 1 1.0 0.0 95 234
r 1.96736 1 0 ack 40 ------- 1 1.0 0.0 72 199
+ 1.96736 0 1 tcp 540 ------- 1 0.0 1.0 139 235
- 1.97008 0 1 tcp 540 ------- 1 0.0 1.0 134 225
r 1.97072 0 1 tcp 540 ------- 1 0.0 1.0 96 159
+ 1.97072 1 0 ack 40 ------- 1 1.0 0.0 96 236
- 1.97072 1 0 ack 40 ------- 1 1.0 0.0 96 236
r 1.97168 1 0 ack 40 ------- 1 1.0 0.0 73 200
+ 1.97168 0 1 tcp 540 ------- 1 0.0 1.0 140 237
- 1.9744 0 1 tcp 540 ------- 1 0.0 1.0 135 227
r 1.97504 0 1 tcp 540 ------- 1 0.0 1.0 97 160
+ 1.97504 1 0 ack 40 ------- 1 1.0 0.0 97 238
- 1.97504 1 0 ack 40 ------- 1 1.0 0.0 97 238
r 1.976 1 0 ack 40 ------- 1 1.0 0.0 74 201
+ 1.976 0 1 tcp 540 ------- 1 0.0 1.0 141 239
- 1.97872 0 1 tcp 540 ------- 1 0.0 1.0 136 229
r 1.97936 0 1 tcp 540 ------- 1 0.0 1.0 98 161
+ 1.97936 1 0 ack 40 ------- 1 1.0 0.0 98 240
- 1.97936 1 0 ack 40 ------- 1 1.0 0.0 98 240
r 1.98032 1 0 ack 40 ------- 1 1.0 0.0 75 202
+ 1.98032 0 1 tcp 540 ------- 1 0.0 1.0 142 241
- 1.98304 0 1 tcp 540 ------- 1 0.0 1.0 137 231